LAMMPS data file via write_data, version 31 Mar 2017, timestep = 59500000

20000 atoms
1 atom types
19000 bonds
1 bond types
18000 angles
1 angle types

-1.0313409921066405e+01 1.0313409921066405e+01 xlo xhi
-1.0313409921066405e+01 1.0313409921066405e+01 ylo yhi
-1.0313409921066405e+01 1.0313409921066405e+01 zlo zhi

Masses

1 1


Atoms # angle

3760 1 1 -9.9995129219737624e+00 -9.7726037874667497e+00 -9.2213378133211314e+00 2 1 1
3759 2 1 -9.5372631489400010e+00 -9.6286985327779835e+00 -9.0773173695726559e+00 2 1 1
18858 3 1 -9.1061853361168925e+00 -1.0185527599732643e+01 -9.5118910108952015e+00 -4 -2 2
19438 3 1 -1.0277714610422054e+01 -9.4747486554778746e+00 -1.0099492723402834e+01 3 1 -4
18857 4 1 -8.8151768047445227e+00 -9.8110606940784333e+00 -9.6861991049236060e+00 -4 -2 2
18856 5 1 -8.4494152967241494e+00 -9.6051413323227841e+00 -9.9877534401393309e+00 -4 -2 2
18855 6 1 -8.1176008005476561e+00 -9.2509281581762295e+00 -9.9085257408249205e+00 -4 -2 2
10111 10 1 -8.0934790140411899e+00 -9.7800006720955981e+00 -9.2650062796674160e+00 0 2 -1
10112 9 1 -7.7731062121267964e+00 -1.0031771503630621e+01 -9.5277243088612238e+00 0 2 -1
18024 4 1 -6.7999655762935074e+00 -1.0092566153222064e+01 -9.9104510229373179e+00 -2 6 -1
18025 5 1 -6.6194301069121000e+00 -9.7378586928249931e+00 -1.0229567407408672e+01 -2 6 -1
1842 2 1 -5.1594856425399094e+00 -1.0020609950699155e+01 -9.2592381279621172e+00 2 0 -1
18850 10 1 -6.0484538841849975e+00 -9.1849433694127089e+00 -9.7331834145482183e+00 -4 -2 2
1841 1 1 -5.4577573022359047e+00 -9.6856656831044265e+00 -9.1188342402066684e+00 2 0 -1
3259 2 1 -5.8441078555229531e+00 -9.9914916709864379e+00 -9.9371232425127118e+00 -3 2 3
3258 3 1 -5.6033140404283222e+00 -9.7907014805617738e+00 -1.0298302345758616e+01 -3 2 3
18848 8 1 -5.1868264642180160e+00 -9.0776551936943299e+00 -9.8550256410154393e+00 -4 -2 2
3861 1 1 -9.3468650483028615e+00 -8.7153634647404861e+00 -1.0197358003034541e+01 -1 0 2
3862 2 1 -9.6110520975735518e+00 -8.7586692567306894e+00 -9.8137148532748721e+00 -1 0 2
3863 3 1 -9.9180215926553412e+00 -8.8476453988278756e+00 -9.4629506305511271e+00 -1 0 2
11820 1 1 -9.5822527642050357e+00 -7.9036736784037718e+00 -9.5095996498919177e+00 1 3 2
3864 4 1 -1.0257219399421402e+01 -8.9985395458299298e+00 -9.1291078449863612e+00 -1 0 2
13160 1 1 -8.6654655548899040e+00 -8.9276883956098132e+00 -9.4415438761271862e+00 -1 3 0
18854 7 1 -7.7636725027481202e+00 -8.8709386330592626e+00 -9.8186021685291145e+00 -4 -2 2
13159 2 1 -8.9876121836860943e+00 -8.8455210458340510e+00 -9.0952133183253761e+00 -1 3 0
1402 2 1 -8.4977680350253024e+00 -8.2421471605059402e+00 -9.7963015924551762e+00 1 0 -1
1448 8 1 -7.7717145490133532e+00 -7.8667983812402200e+00 -9.8947574597949295e+00 -1 0 2
1449 9 1 -7.8056698332601346e+00 -7.8259661387890525e+00 -9.4253013587264363e+00 -1 0 2
1401 1 1 -8.6907256898772332e+00 -7.7691779958508285e+00 -9.8143599639108512e+00 1 0 -1
1403 3 1 -8.4198709939255991e+00 -8.4784349756875734e+00 -1.0259909524463012e+01 1 0 -1
18851 10 1 -6.4569375377028857e+00 -8.9950194327431525e+00 -9.5796335751478505e+00 -4 -2 2
18853 8 1 -7.3046594407765237e+00 -8.8106406870344998e+00 -9.6077876028612135e+00 -4 -2 2
18852 9 1 -6.8562725565042353e+00 -8.7971610777389735e+00 -9.4590447484479689e+00 -4 -2 2
1450 10 1 -7.3199564767072092e+00 -7.7804953792073448e+00 -9.3723721701860860e+00 -1 0 2
1445 5 1 -6.8406847856631678e+00 -8.5341670489180785e+00 -1.0309980162465115e+01 -1 0 2
18849 9 1 -5.6291544399448723e+00 -8.9183697197892986e+00 -9.7337224906023074e+00 -4 -2 2
5878 3 1 -6.3846039142050222e+00 -7.8242856108041376e+00 -9.6207719616439675e+00 2 0 1
5877 4 1 -6.0761991738061676e+00 -8.1589370944693105e+00 -9.6492884636992251e+00 2 0 1
5876 5 1 -5.5631077166255327e+00 -8.1113949490507959e+00 -9.6751030867172538e+00 2 0 1
6759 2 1 -1.0263325058882325e+01 -7.5164101670943868e+00 -9.3613838357397174e+00 -1 3 0
11818 3 1 -9.2897234039584475e+00 -6.9747063527174564e+00 -9.2457495118841244e+00 1 3 2
11819 2 1 -9.4139771584243803e+00 -7.4358194045005686e+00 -9.3655962460455644e+00 1 3 2
11981 1 1 -9.1629853526147063e+00 -6.8478381588266792e+00 -1.0213046884340828e+01 2 -3 0
11817 4 1 -9.2018852292655744e+00 -6.5004319636338543e+00 -9.0271079101604599e+00 1 3 2
11983 3 1 -9.5055287739034036e+00 -7.6490614633781053e+00 -1.0270751731341020e+01 2 -3 0
11982 2 1 -9.5259118806078593e+00 -7.1863989915419406e+00 -1.0119131169258297e+01 2 -3 0
17981 1 1 -8.1467666640638736e+00 -7.1210316477624787e+00 -9.3501248016755643e+00 0 -2 3
17990 10 1 -8.1753531079681707e+00 -6.7078277658714924e+00 -1.0170203746449399e+01 0 -2 3
17982 2 1 -8.5341098233574488e+00 -6.8089116452511522e+00 -9.3695850542193249e+00 0 -2 3
17989 9 1 -7.7463322584207805e+00 -6.9677948808353598e+00 -1.0112629048444468e+01 0 -2 3
17988 8 1 -7.2978818897012188e+00 -6.8434625447199551e+00 -1.0240217852948989e+01 0 -2 3
17987 7 1 -7.0048007241073211e+00 -6.4984505226493372e+00 -1.0064736053476636e+01 0 -2 3
1451 10 1 -7.0905455173160217e+00 -7.3709646897441754e+00 -9.2661627864737319e+00 -1 0 2
1452 9 1 -6.9278630961410048e+00 -6.9154507588147318e+00 -9.1857806567697455e+00 -1 0 2
5879 2 1 -6.3178439380176599e+00 -7.5600565374884683e+00 -1.0043607583302961e+01 2 0 1
14855 6 1 -6.0517179484779389e+00 -6.5697078508971796e+00 -9.7698631411364385e+00 0 0 2
14854 7 1 -6.0499653015123673e+00 -7.0092165690318744e+00 -9.4857308007800967e+00 0 0 2
14853 8 1 -5.7125977424423073e+00 -7.1729500056770243e+00 -9.1500610537491003e+00 0 0 2
17677 4 1 -5.4480263620825413e+00 -7.2826240385540180e+00 -1.0136647032761092e+01 -3 2 -1
17678 3 1 -5.1991573625245344e+00 -7.0823661687890391e+00 -9.7338893110602793e+00 -3 2 -1
10066 6 1 -9.3326063370360952e+00 -6.1391667343995833e+00 -9.7417359472032086e+00 0 2 -1
10067 7 1 -9.7939271459363137e+00 -6.2214795898154689e+00 -9.6450480124628388e+00 0 2 -1
10068 8 1 -9.9836595961132168e+00 -6.1578394925918429e+00 -9.1677602140877283e+00 0 2 -1
11814 7 1 -9.3688538846667129e+00 -5.1816545668073832e+00 -9.3289131744812366e+00 1 3 2
11815 6 1 -9.2504328038764303e+00 -5.5908269739893690e+00 -9.0831382700766028e+00 1 3 2
11813 8 1 -9.6067460618339222e+00 -5.1974221395613895e+00 -9.7464808593296226e+00 1 3 2
10065 5 1 -8.8712086696448917e+00 -5.9920635972989329e+00 -9.8475562962972294e+00 0 2 -1
10063 3 1 -7.9849256421546206e+00 -5.5502610984615206e+00 -1.0073310410336758e+01 0 2 -1
10064 4 1 -8.4048114463128236e+00 -5.8065290733056640e+00 -9.9317485267984527e+00 0 2 -1
17983 3 1 -8.2766129037838994e+00 -6.4249026875422341e+00 -9.2962141041508737e+00 0 -2 3
17984 4 1 -8.0878174672993985e+00 -5.9857508993670816e+00 -9.2154805827577757e+00 0 -2 3
14857 4 1 -6.5718427655479630e+00 -5.9454786152922079e+00 -9.5434223067189610e+00 0 0 2
14858 3 1 -6.8936484615087164e+00 -5.6829901475955413e+00 -9.3005600699042912e+00 0 0 2
17986 6 1 -7.3550973531244743e+00 -6.3287697614073917e+00 -9.7425987884686656e+00 0 -2 3
17985 5 1 -7.7066241093887324e+00 -6.2007064353257100e+00 -9.4702593369472865e+00 0 -2 3
14859 2 1 -7.2684127877688782e+00 -5.4586644500373822e+00 -9.0653486580254281e+00 0 0 2
17997 4 1 -6.8430708653177348e+00 -5.3109192776432996e+00 -1.0235796370267828e+01 0 -2 3
5949 9 1 -5.8813177368193683e+00 -5.2270436621707761e+00 -9.5004550233090779e+00 -3 3 1
5950 10 1 -5.7126873327861727e+00 -5.3296061480975601e+00 -9.9697289287129376e+00 -3 3 1
14856 5 1 -6.2401465770884652e+00 -6.1330320520249639e+00 -9.8425723119472952e+00 0 0 2
10476 5 1 -5.6972141228758897e+00 -6.1334881226107623e+00 -9.0561423231670588e+00 -2 4 -2
10477 4 1 -5.3229406034169200e+00 -5.9820583161440330e+00 -9.3613783981303147e+00 -2 4 -2
19430 10 1 -9.6863172413171199e+00 -9.9202099851507501e+00 -7.8360153425880430e+00 3 1 -4
19431 10 1 -1.0122109879878943e+01 -1.0087374654592685e+01 -7.9831961679431158e+00 3 1 -4
3758 3 1 -9.2614752963961333e+00 -9.8474838449363933e+00 -8.7137583612185470e+00 2 1 1
3757 4 1 -9.2759131861329678e+00 -9.4123482382392503e+00 -8.4524443838340542e+00 2 1 1
3866 6 1 -1.0050934379437960e+01 -9.3153608754072188e+00 -8.4035873104688772e+00 -1 0 2
3867 7 1 -1.0236498174716544e+01 -9.2239360371299046e+00 -7.9818203506400156e+00 -1 0 2
10109 9 1 -8.3891458057053718e+00 -9.8207897692938708e+00 -8.5078566236202473e+00 0 2 -1
10110 10 1 -8.3596709560172755e+00 -9.5581071586386326e+00 -8.9299347964992020e+00 0 2 -1
6749 9 1 -7.7692199503221753e+00 -9.4301174133983938e+00 -8.1076322408002870e+00 -1 3 0
10108 8 1 -8.1192212214980692e+00 -1.0251140461286804e+01 -8.4636444853376993e+00 0 2 -1
6750 10 1 -8.1230061756991780e+00 -9.3686005529793821e+00 -7.7971949626322292e+00 -1 3 0
3502 2 1 -7.1962951231397225e+00 -1.0264398708599204e+01 -7.8708324753805128e+00 -3 -1 0
6748 8 1 -7.4240153049092683e+00 -9.4717261529566237e+00 -8.4603243236414709e+00 -1 3 0
6746 6 1 -6.7116037593207487e+00 -9.8165392058898497e+00 -8.8845811033172435e+00 -1 3 0
6747 7 1 -7.0773643003841507e+00 -9.5023769456486669e+00 -8.8032793419393602e+00 -1 3 0
6355 6 1 -6.5991392055667824e+00 -9.5921856353537933e+00 -7.7871565369806968e+00 -2 3 2
6356 5 1 -6.8610894254556216e+00 -9.1726243652483426e+00 -7.8458889825772875e+00 -2 3 2
3501 1 1 -7.1739094300793305e+00 -1.0302967307296900e+01 -8.3527206553339592e+00 -3 -1 0
6745 5 1 -6.3801295206580741e+00 -9.4281679745769917e+00 -8.8445501405977041e+00 -1 3 0
6354 7 1 -6.3139493521961230e+00 -9.8673316387246643e+00 -8.1008996732395673e+00 -2 3 2
10466 6 1 -5.4651337832674454e+00 -9.0462080430623999e+00 -7.9285088236471264e+00 -2 4 -2
10463 3 1 -5.3564046249555206e+00 -1.0241901912924886e+01 -8.2314473070341663e+00 -2 4 -2
10465 5 1 -5.4616779475661250e+00 -9.4728556476705741e+00 -8.2108086857955289e+00 -2 4 -2
3865 5 1 -1.0295699921399404e+01 -8.9012916196349643e+00 -8.6142422920891271e+00 -1 0 2
13158 3 1 -9.0965537443742033e+00 -8.4179219932141134e+00 -8.9406377891201210e+00 -1 3 0
3756 5 1 -9.2080493612178298e+00 -9.0092350666576806e+00 -8.1737860027749214e+00 2 1 1
6756 5 1 -9.5753113977454518e+00 -7.9657862985920378e+00 -8.1788364015550119e+00 -1 3 0
6755 6 1 -9.2933567353874249e+00 -7.9423926997379333e+00 -7.7878246819918964e+00 -1 3 0
6757 4 1 -9.8489946403798463e+00 -7.9349288396987792e+00 -8.6126998961272143e+00 -1 3 0
6758 3 1 -1.0104910378108192e+01 -7.7492989986315459e+00 -8.9650042977247608e+00 -1 3 0
13652 9 1 -1.0238687278893368e+01 -8.3939279474276010e+00 -7.8557065560486583e+00 -2 0 -1
13157 4 1 -8.7466935432880604e+00 -8.0301676028063937e+00 -8.8770723628350172e+00 -1 3 0
3755 6 1 -8.7786321844125172e+00 -8.7391544327386548e+00 -8.1651262773731172e+00 2 1 1
3754 7 1 -8.3657112216711891e+00 -8.4600525797851454e+00 -8.1428033824425583e+00 2 1 1
3753 8 1 -8.0013964465832892e+00 -8.1070708800289726e+00 -8.0892754534169207e+00 2 1 1
6360 1 1 -7.7054953749397725e+00 -8.3929444184277511e+00 -8.9856357076844429e+00 -2 3 2
6359 2 1 -7.3969076345702218e+00 -8.4067489033259974e+00 -8.6245474222601430e+00 -2 3 2
6358 3 1 -7.0797124173277393e+00 -8.4765192266493514e+00 -8.2479179451445965e+00 -2 3 2
6742 2 1 -6.4527492389074430e+00 -8.0974423864167413e+00 -8.5996172101249684e+00 -1 3 0
3752 9 1 -7.6183672873482040e+00 -7.7688002193857653e+00 -8.1446591383758538e+00 2 1 1
6357 4 1 -7.1829797899608714e+00 -8.8206249466790076e+00 -7.9293962761706478e+00 -2 3 2
6744 4 1 -6.0888392911348124e+00 -9.0134535204027042e+00 -8.8190808192352197e+00 -1 3 0
6743 3 1 -6.2689682681694698e+00 -8.5338967168984521e+00 -8.6939118507832003e+00 -1 3 0
10467 7 1 -5.8295177607697353e+00 -8.7496370697523744e+00 -7.8567305076033538e+00 -2 4 -2
10468 8 1 -6.2275337244534370e+00 -8.4631469121295915e+00 -7.7697239817882480e+00 -2 4 -2
14849 9 1 -5.2718480219394799e+00 -8.4880121114659222e+00 -8.8921891883597688e+00 0 0 2
16701 1 1 -9.5938132917199184e+00 -6.9309028873988145e+00 -8.4366423030276660e+00 1 0 1
16702 2 1 -9.6014465097124759e+00 -6.4967821650470459e+00 -8.2015386243763473e+00 1 0 1
13156 5 1 -8.4607873156871047e+00 -7.6403225663153247e+00 -8.7307101865558501e+00 -1 3 0
13154 7 1 -8.7849406396192968e+00 -7.0753961023793144e+00 -8.0249769240419582e+00 -1 3 0
13155 6 1 -8.6439012140333755e+00 -7.3532936755648679e+00 -8.3827280024508735e+00 -1 3 0
16722 2 1 -8.0512144785654769e+00 -6.7535497329399892e+00 -8.5609638323525363e+00 1 1 1
16721 1 1 -7.7225743748586222e+00 -7.1240539318047649e+00 -8.5536516966623193e+00 1 1 1
6741 1 1 -6.6607993733912814e+00 -7.6233554599319184e+00 -8.4976272003068036e+00 -1 3 0
1453 8 1 -7.1272317391431859e+00 -6.5256776341967866e+00 -8.9244479272773383e+00 -1 0 2
14253 8 1 -5.2491877833581562e+00 -7.1061512504661284e+00 -8.0031300434695609e+00 -1 -3 -1
14254 7 1 -5.3320447428959614e+00 -6.6202437729200030e+00 -8.1993322610517048e+00 -1 -3 -1
10473 8 1 -6.4101029903222875e+00 -6.9223555937851362e+00 -8.1465821512248411e+00 -2 4 -2
10474 7 1 -6.2317397529499923e+00 -6.6636916181725940e+00 -8.4990234281071775e+00 -2 4 -2
14852 9 1 -5.4361192784596097e+00 -7.4063789831625062e+00 -8.8615366916788680e+00 0 0 2
10472 9 1 -6.2008102034705797e+00 -7.3193610623864771e+00 -7.9323756459878290e+00 -2 4 -2
16704 4 1 -1.0090418104619387e+01 -6.2753953355851246e+00 -7.7894996185658760e+00 1 0 1
11816 5 1 -9.1151598655954587e+00 -6.0464247487637470e+00 -8.8864131548743135e+00 1 3 2
16703 3 1 -9.6751230695207422e+00 -6.1200406244656191e+00 -7.9420582182026740e+00 1 0 1
16726 6 1 -9.1314999360569900e+00 -5.2988646430468904e+00 -8.2264962987996633e+00 1 1 1
10069 9 1 -1.0184443429380597e+01 -6.0294415470102800e+00 -8.7511907816203749e+00 0 2 -1
10070 10 1 -1.0040467563847409e+01 -5.6296320005963052e+00 -8.5321245584613674e+00 0 2 -1
10071 10 1 -1.0194882044288736e+01 -5.1909016581830212e+00 -8.6906713851453770e+00 0 2 -1
16724 4 1 -8.5374864969455526e+00 -6.0721588163729878e+00 -8.1795647904582918e+00 1 1 1
16723 3 1 -8.1840434315371660e+00 -6.4130470628579044e+00 -8.2443523059113453e+00 1 1 1
1456 5 1 -7.8644288675890488e+00 -5.4963624034918697e+00 -8.1387376903880391e+00 -1 0 2
16725 5 1 -8.9012884634640521e+00 -5.7650497154159233e+00 -8.1801374599806884e+00 1 1 1
1454 7 1 -7.3725958074284605e+00 -6.1849179925261391e+00 -8.6401796797096875e+00 -1 0 2
1455 6 1 -7.5854906697284994e+00 -5.8510430563161702e+00 -8.3533044340256470e+00 -1 0 2
10140 1 1 -6.5060445021790976e+00 -5.9033130170798493e+00 -8.2188510935145072e+00 -1 1 1
10139 2 1 -6.8165665284378871e+00 -6.0514700652303723e+00 -7.8559476645101940e+00 -1 1 1
14860 1 1 -7.6480533930313310e+00 -5.2570499094358043e+00 -8.9018722944064592e+00 0 0 2
17921 1 1 -6.2483228749342796e+00 -5.3042227096395749e+00 -8.7157462320895078e+00 2 5 1
10475 6 1 -6.1053410538287833e+00 -6.3302290491239930e+00 -8.8568895640842271e+00 -2 4 -2
2878 3 1 -5.6348979509235093e+00 -5.5987104291291985e+00 -8.0435933340060757e+00 2 0 2
2877 4 1 -5.8077306985258677e+00 -5.9483566501731939e+00 -7.7551019373609087e+00 2 0 2
2879 2 1 -5.3703077092293476e+00 -5.2994903508279769e+00 -8.3178407462727311e+00 2 0 2
3871 10 1 -9.8110747408069727e+00 -1.0098161788848499e+01 -6.9688551794031284e+00 -1 0 2
3870 10 1 -1.0281319893750215e+01 -9.9767638467390309e+00 -7.0965220406317346e+00 -1 0 2
19429 9 1 -9.5630055484816925e+00 -9.4684791467883880e+00 -7.5714547233483049e+00 3 1 -4
19428 8 1 -9.4656272274978814e+00 -9.0519171141808652e+00 -7.3292026999521376e+00 3 1 -4
3872 9 1 -9.3561798763978317e+00 -1.0308450909202937e+01 -6.8916724204187449e+00 -1 0 2
7324 4 1 -8.6655146095191462e+00 -9.7471895386407397e+00 -7.2638498627774446e+00 -1 2 -1
6751 10 1 -8.0971060864598954e+00 -9.1490454388249063e+00 -7.3554963348930258e+00 -1 3 0
7323 3 1 -8.4836674794221025e+00 -9.7281954729917111e+00 -6.8223941551575660e+00 -1 2 -1
19426 6 1 -8.8788641890161770e+00 -9.0482494335763839e+00 -6.5209220862246893e+00 3 1 -4
7325 5 1 -8.6546166011718757e+00 -1.0122660390871062e+01 -7.6149524608125940e+00 -1 2 -1
3503 3 1 -7.5625379080470942e+00 -1.0030072938408331e+01 -7.6423377064760665e+00 -3 -1 0
3504 4 1 -7.5045360865968807e+00 -9.7046411879617480e+00 -7.2515276562033968e+00 -3 -1 0
3505 5 1 -7.4602116249003281e+00 -9.3726319489633756e+00 -6.8543366241820216e+00 -3 -1 0
9697 4 1 -6.4979773046863469e+00 -9.5157388685312068e+00 -6.4865258657373834e+00 0 2 3
9694 7 1 -7.4433769982019751e+00 -1.0218985722292926e+01 -6.5829949866473783e+00 0 2 3
9362 2 1 -6.4238651685221653e+00 -1.0068936829394387e+01 -7.1769666653393251e+00 0 0 -1
18561 1 1 -5.9142242524441491e+00 -9.3168842086820423e+00 -7.1543761682095894e+00 3 6 2
9363 3 1 -5.9480745408409081e+00 -1.0211729816406425e+01 -7.2074105033202809e+00 0 0 -1
7380 1 1 -5.5717813030599634e+00 -9.8242887120920361e+00 -6.5419577248190226e+00 -5 1 0
19427 7 1 -9.1913164458202914e+00 -9.0190758548621925e+00 -6.9018851954723734e+00 3 1 -4
13651 10 1 -1.0008976251143105e+01 -8.2860437104142814e+00 -7.4350046081899013e+00 -2 0 -1
13650 10 1 -9.7864615672066630e+00 -8.2600622670686317e+00 -7.0508519479978746e+00 -2 0 -1
13649 9 1 -9.9594941490674280e+00 -8.4599490152310892e+00 -6.6494579941242593e+00 -2 0 -1
6754 7 1 -8.9923879820484487e+00 -8.1180694536505484e+00 -7.4578709443902191e+00 -1 3 0
6753 8 1 -8.6835887063304416e+00 -8.3546381312173423e+00 -7.1202781183415222e+00 -1 3 0
6752 9 1 -8.4481978743656612e+00 -8.7826319914634343e+00 -7.2225619275111388e+00 -1 3 0
3748 8 1 -8.0077709999908642e+00 -8.3506725523804555e+00 -6.5600043991443329e+00 2 1 1
10469 9 1 -6.5526571572711498e+00 -8.4364583682524010e+00 -7.4015711210802095e+00 -2 4 -2
3751 10 1 -7.4305867494459266e+00 -7.9913034677895753e+00 -7.6863583749180560e+00 2 1 1
3749 9 1 -7.6934074358535716e+00 -8.4610237404946531e+00 -6.9175277263779877e+00 2 1 1
9700 1 1 -6.8278892497346746e+00 -8.3334065691734605e+00 -6.4951866769091868e+00 0 2 3
3750 10 1 -7.6056188100416602e+00 -8.2702256474926639e+00 -7.3461353814097752e+00 2 1 1
10470 10 1 -6.4917056244621065e+00 -7.9634678448109284e+00 -7.2584430318715043e+00 -2 4 -2
3516 5 1 -5.3435058770299984e+00 -8.0723993262728886e+00 -7.2823277419653012e+00 -3 -1 0
18562 2 1 -5.8016015030406223e+00 -8.9153279748884842e+00 -6.8783935690683595e+00 3 6 2
18563 3 1 -5.6763029148526423e+00 -8.5295033674583625e+00 -6.5119857792484854e+00 3 6 2
3513 8 1 -6.0334094078493177e+00 -7.7661378013474263e+00 -6.4713275034039093e+00 -3 -1 0
14234 7 1 -9.3301471548108790e+00 -7.5175848820152087e+00 -6.8749851222137526e+00 2 2 1
14235 6 1 -9.0932937831317702e+00 -7.7099979915034655e+00 -6.4658326030070663e+00 2 2 1
14232 9 1 -9.9974156134262877e+00 -7.2549182297765320e+00 -7.1283254704176198e+00 2 2 1
14233 8 1 -9.5541277499476962e+00 -7.3744536579494273e+00 -7.2991369577373009e+00 2 2 1
3741 1 1 -9.1979970903084904e+00 -6.6440332059881726e+00 -6.8772411517787777e+00 2 1 1
13153 8 1 -8.8479727220855207e+00 -6.7860034192059357e+00 -7.6347804027909092e+00 -1 3 0
13151 10 1 -8.4943618004794974e+00 -7.4636554069815064e+00 -7.2395389145234041e+00 -1 3 0
13150 10 1 -8.2418900140237668e+00 -7.6394397133893257e+00 -6.8425120870663694e+00 -1 3 0
13152 9 1 -8.5740492145940390e+00 -7.0009080966331094e+00 -7.3113895565721139e+00 -1 3 0
13149 9 1 -7.7740555040122139e+00 -7.4905792818912875e+00 -6.9375186596606051e+00 -1 3 0
3742 2 1 -9.0000989308607195e+00 -6.7667869307252460e+00 -6.4474619136397617e+00 2 1 1
3495 6 1 -8.1130846010167268e+00 -6.7482708295733698e+00 -6.4847892949741794e+00 2 0 2
3500 1 1 -6.6089897952948249e+00 -7.0718827436783922e+00 -6.9663424595597352e+00 2 0 2
13148 8 1 -7.6085095570491363e+00 -7.0905553254611302e+00 -7.2413878369125069e+00 -1 3 0
3499 2 1 -6.8894728014211708e+00 -7.2348234630584951e+00 -6.6123991424839161e+00 2 0 2
13147 7 1 -7.4619349287604351e+00 -6.7373714735220567e+00 -7.5376557405933937e+00 -1 3 0
3515 6 1 -5.6178776977661586e+00 -7.6943380561619570e+00 -7.0249517010106164e+00 -3 -1 0
10471 10 1 -6.3265284795844998e+00 -7.6368365217639438e+00 -7.5780419426874754e+00 -2 4 -2
3514 7 1 -5.8841539352344467e+00 -7.3754241860635315e+00 -6.7635449332442867e+00 -3 -1 0
12088 8 1 -1.0292622005337746e+01 -5.2751674324980877e+00 -7.2247184585419335e+00 3 1 0
16707 7 1 -1.0048207974587232e+01 -5.9278859163826141e+00 -6.7353221292385639e+00 1 0 1
16706 6 1 -9.9106049211588036e+00 -6.2406161329153464e+00 -7.0756584924838002e+00 1 0 1
16883 3 1 -9.0969150516371027e+00 -5.5085752547091884e+00 -7.2813998441248007e+00 4 0 4
16708 8 1 -9.5628887455114508e+00 -5.8101924126186884e+00 -6.5785316064247379e+00 1 0 1
16881 1 1 -8.4730604682073167e+00 -5.8633192369214822e+00 -7.3655695522355780e+00 4 0 4
13146 6 1 -7.7912095594284789e+00 -6.4406826746309349e+00 -7.3884157502532020e+00 -1 3 0
16882 2 1 -8.8658900931794484e+00 -5.9364925323306084e+00 -7.0914579578201558e+00 4 0 4
703 3 1 -6.9793098272048191e+00 -5.2117832748633015e+00 -7.6665703612612850e+00 -2 -2 0
13145 5 1 -7.6901387851565577e+00 -6.0058676160315079e+00 -7.1997129687408279e+00 -1 3 0
13144 4 1 -7.4046647559491658e+00 -6.1619556919117811e+00 -6.8347973835957312e+00 -1 3 0
10137 4 1 -6.6090504198146567e+00 -6.0512096439891740e+00 -7.1731211442867346e+00 -1 1 1
10138 3 1 -6.6933490926268480e+00 -6.3865695993206417e+00 -7.4997138405657209e+00 -1 1 1
10136 5 1 -6.3787717134350226e+00 -6.2486131273342593e+00 -6.7758692266670639e+00 -1 1 1
2876 5 1 -5.6996184628757067e+00 -6.1349199136535155e+00 -7.2852127201302768e+00 2 0 2
2875 6 1 -5.2704833297750557e+00 -6.2416527006765605e+00 -7.1390009050893344e+00 2 0 2
17691 10 1 -1.0078003119985222e+01 -9.8316698398119904e+00 -5.3475069581589150e+00 -2 1 -1
19421 1 1 -9.6533539116565326e+00 -9.3030293949163294e+00 -6.0899539901081363e+00 3 1 -4
19422 2 1 -9.4222474016631885e+00 -9.4011269909651354e+00 -5.6637631210264985e+00 3 1 -4
19423 3 1 -9.0325612120562635e+00 -9.1833923947119569e+00 -5.4326242019174495e+00 3 1 -4
17690 10 1 -9.9488323604592335e+00 -1.0292250885711796e+01 -5.4986873307661854e+00 -2 1 -1
17692 9 1 -1.0213921802038717e+01 -9.3606280747383703e+00 -5.2106422281989513e+00 -2 1 -1
7322 2 1 -8.3226187958382365e+00 -9.7216791823804929e+00 -6.3710468808502849e+00 -1 2 -1
7321 1 1 -8.1210337135575887e+00 -9.8390747211359919e+00 -5.9271536366693001e+00 -1 2 -1
19425 5 1 -8.5608258700024553e+00 -9.0400176139009538e+00 -6.1731021574695246e+00 3 1 -4
18574 7 1 -7.7759398061430982e+00 -9.3001387926740531e+00 -5.2336410443600103e+00 3 6 2
9695 6 1 -7.0829102735982410e+00 -1.0141283396707115e+01 -6.2786143307471134e+00 0 2 3
9698 3 1 -6.4949941662706232e+00 -9.1078800814193848e+00 -6.1662055167729148e+00 0 2 3
3506 6 1 -7.5086268022150087e+00 -9.1125333214740376e+00 -6.4069930959141903e+00 -3 -1 0
9696 5 1 -6.8547679532635186e+00 -9.7265917358623923e+00 -6.1899918258693525e+00 0 2 3
9368 8 1 -5.9813302246727584e+00 -1.0017022486663349e+01 -5.7351109925570602e+00 0 0 -1
7377 4 1 -5.1733140389677752e+00 -1.0203432961528476e+01 -5.7089427150985141e+00 -5 1 0
7379 2 1 -5.2657163046852755e+00 -9.7423574139265359e+00 -6.2199440288926242e+00 -5 1 0
9369 9 1 -6.2223099460893350e+00 -9.8830818121270365e+00 -5.3539473186394382e+00 0 0 -1
18566 6 1 -5.9333845695539704e+00 -9.0885252059111430e+00 -5.5710840026191928e+00 3 6 2
7376 5 1 -5.2294863718677940e+00 -9.9611538799135513e+00 -5.2745121109517799e+00 -5 1 0
18567 7 1 -6.4016765188280971e+00 -9.1129216358218308e+00 -5.3685839957943067e+00 3 6 2
9367 7 1 -6.1398202030529960e+00 -1.0298631804659900e+01 -6.1409244893340897e+00 0 0 -1
13648 8 1 -1.0192388085491816e+01 -8.6492074644942782e+00 -6.2696239839812185e+00 -2 0 -1
9773 8 1 -9.8240283971159741e+00 -7.7564464583125972e+00 -5.1964306009783741e+00 4 0 0
14238 3 1 -9.2880812559283861e+00 -8.3120736335415533e+00 -5.4525532029486019e+00 2 2 1
14237 4 1 -9.4367037488709453e+00 -8.3630173201754410e+00 -5.9173188529319827e+00 2 2 1
14236 5 1 -9.1569608347734519e+00 -8.1791200946390425e+00 -6.3173081274816756e+00 2 2 1
19424 4 1 -8.6202534136851785e+00 -9.0128100102287174e+00 -5.7248779479105609e+00 3 1 -4
3746 6 1 -8.4454794039233647e+00 -8.1007786376354538e+00 -5.6521717715222088e+00 2 1 1
3747 7 1 -8.2785177706919129e+00 -8.2323412223458110e+00 -6.1213679452820484e+00 2 1 1
9699 2 1 -6.4634165798012102e+00 -8.5969793443129205e+00 -6.3193760066096853e+00 0 2 3
3507 7 1 -7.4930522389529841e+00 -8.8316046706924247e+00 -6.0167726901290752e+00 -3 -1 0
3508 8 1 -7.3985490744628608e+00 -8.4607325134001279e+00 -5.7056424654979612e+00 -3 -1 0
3509 9 1 -7.2131804089523577e+00 -8.0860412145190601e+00 -5.4890660631924195e+00 -3 -1 0
3511 10 1 -6.6788480444729741e+00 -7.7388626914553331e+00 -5.6700134263876292e+00 -3 -1 0
18565 5 1 -5.8988131183586034e+00 -8.6207969638689743e+00 -5.5766402594802891e+00 3 6 2
18564 4 1 -5.7440339545323278e+00 -8.5471940775663295e+00 -6.0182352171363016e+00 3 6 2
3512 9 1 -6.3232368479178778e+00 -7.7825556265362046e+00 -6.0755034700883757e+00 -3 -1 0
10130 10 1 -5.1805767059100543e+00 -8.0542599742779295e+00 -5.3606000982052846e+00 -1 1 1
9774 7 1 -9.8465475737818142e+00 -7.6826627277484221e+00 -5.6863656075343352e+00 4 0 0
9775 6 1 -9.9838427675679640e+00 -7.5423012269032306e+00 -6.1701126739685535e+00 4 0 0
9776 5 1 -9.7427682925902506e+00 -7.1161340071411763e+00 -6.1897616613720805e+00 4 0 0
9777 4 1 -9.6938223168651962e+00 -6.8024448881786190e+00 -5.8443724263740293e+00 4 0 0
3745 5 1 -8.6967778650257532e+00 -7.7062867355335749e+00 -5.5363709686132072e+00 2 1 1
3744 4 1 -8.8173904950071620e+00 -7.2836371108103801e+00 -5.8034477361091987e+00 2 1 1
3743 3 1 -8.8898129349153727e+00 -6.8455908656311610e+00 -6.0111089174962480e+00 2 1 1
3496 5 1 -8.0169518393116803e+00 -7.1046625093174045e+00 -6.1161782194332845e+00 2 0 2
3510 10 1 -6.9669858813625165e+00 -7.7209885002953111e+00 -5.2633984435616972e+00 -3 -1 0
3497 4 1 -7.5995745944883346e+00 -7.3035403206074490e+00 -5.9590362941139778e+00 2 0 2
15480 1 1 -6.7195995450522208e+00 -6.7643707891900409e+00 -5.6558197424152263e+00 -1 7 2
3498 3 1 -7.2008767536530822e+00 -7.3501414627174775e+00 -6.2884129330113998e+00 2 0 2
13141 1 1 -7.6327348861539068e+00 -6.5002875949204899e+00 -5.6174180745430533e+00 -1 3 0
10132 9 1 -6.0024893267028334e+00 -7.3469555369588555e+00 -5.3567407156778124e+00 -1 1 1
10135 6 1 -6.1660063553725513e+00 -6.4523021939444236e+00 -6.3558502335704894e+00 -1 1 1
10131 10 1 -5.6238145346105988e+00 -7.6885370598600886e+00 -5.3330974880956292e+00 -1 1 1
10133 8 1 -5.7448938816235104e+00 -6.9889688581084890e+00 -5.6380744019399023e+00 -1 1 1
10134 7 1 -5.9447955933633922e+00 -6.6897188732030344e+00 -6.0259767168063600e+00 -1 1 1
19821 1 1 -9.7996231344388889e+00 -5.2149218586815111e+00 -5.7822577061751348e+00 2 -1 1
9779 2 1 -1.0211816738108565e+01 -5.9713500337165977e+00 -5.8274555432361863e+00 4 0 0
9778 3 1 -9.9290181555802910e+00 -6.3914198127490263e+00 -5.8528822130394156e+00 4 0 0
16709 9 1 -9.3098680741471309e+00 -5.9276126940115663e+00 -6.1905391887229744e+00 1 0 1
16710 10 1 -9.0356732681340652e+00 -6.0504978514318628e+00 -5.7824031879378488e+00 1 0 1
3492 9 1 -8.2870232956585319e+00 -5.3070195858301803e+00 -6.1396201819890264e+00 2 0 2
3493 8 1 -8.2556554203648105e+00 -5.7639809762989422e+00 -6.3003756030329736e+00 2 0 2
3494 7 1 -8.1998595526653890e+00 -6.2534527451952204e+00 -6.3652686002943124e+00 2 0 2
16711 10 1 -8.7194228338146971e+00 -6.1678866260552505e+00 -5.3815892965287926e+00 1 0 1
16712 9 1 -8.2994941118659931e+00 -6.3686157858910821e+00 -5.3024641738535561e+00 1 0 1
3491 10 1 -8.5967600561008748e+00 -5.1892193481747810e+00 -5.7868699402400114e+00 2 0 2
8922 2 1 -6.9455176225618915e+00 -5.4898756609750032e+00 -5.2409140313076339e+00 1 3 -2
17929 9 1 -6.4765405295088723e+00 -5.4821524071088508e+00 -6.2480784964048270e+00 2 5 1
14280 1 1 -7.4153434605000408e+00 -5.5034673569905044e+00 -6.2143849716343320e+00 2 -3 3
8921 1 1 -7.2884394383542830e+00 -5.7867028766992936e+00 -5.4458760302099352e+00 1 3 -2
13143 3 1 -7.1475951120035450e+00 -6.3249653251999582e+00 -6.4398304574370551e+00 -1 3 0
13142 2 1 -7.4276090010494595e+00 -6.3768348388110594e+00 -6.0208069197787042e+00 -1 3 0
626 6 1 -5.2248442813836071e+00 -5.3025389522062625e+00 -5.7483122488207909e+00 -3 0 3
17931 10 1 -6.2409636022036441e+00 -5.9660975567240841e+00 -5.3859529884153305e+00 2 5 1
17930 10 1 -6.3479970125222263e+00 -5.7106249554338460e+00 -5.8152359379474508e+00 2 5 1
624 4 1 -5.2591857062340921e+00 -6.0690078280978677e+00 -5.9613300070051407e+00 -3 0 3
625 5 1 -5.3604940386416438e+00 -5.6199132346024090e+00 -6.0949902403923089e+00 -3 0 3
17932 9 1 -5.8028631959982997e+00 -6.2093116612850983e+00 -5.2635064404904934e+00 2 5 1
3879 2 1 -9.2965209335480452e+00 -9.3809772018347388e+00 -4.1644995522697634e+00 -1 0 2
10155 6 1 -1.0254591389204641e+01 -1.0010726941012933e+01 -4.4519940442609780e+00 2 0 -3
3878 3 1 -9.2314399533310851e+00 -9.7214548652715180e+00 -4.5713981145082148e+00 -1 0 2
3877 4 1 -9.2253701380320905e+00 -1.0101771115684846e+01 -4.9070793048735677e+00 -1 0 2
10156 5 1 -1.0308514058501142e+01 -9.5104026194809013e+00 -4.4116411289406567e+00 2 0 -3
11409 9 1 -8.4729854161845370e+00 -9.1267396526478937e+00 -4.3294872791714161e+00 -1 4 -1
11410 10 1 -8.5799235741503583e+00 -9.3970870007766045e+00 -4.7435989450039724e+00 -1 4 -1
11411 10 1 -8.3911532748688415e+00 -9.8408745726064168e+00 -4.8432970760225755e+00 -1 4 -1
11412 9 1 -8.3203794952600472e+00 -1.0305318700294576e+01 -4.9806850413235360e+00 -1 4 -1
18576 5 1 -7.4267147636933419e+00 -1.0036963502003019e+01 -4.6983150850895798e+00 3 6 2
18575 6 1 -7.5981149725150159e+00 -9.6278750696937987e+00 -4.9282257300267416e+00 3 6 2
18568 8 1 -6.8356407085154380e+00 -9.0540390317036117e+00 -5.1310915835592112e+00 3 6 2
7374 7 1 -5.2320234323040209e+00 -9.2878077746454082e+00 -4.5505228628927687e+00 -5 1 0
9371 10 1 -6.2073141673855181e+00 -9.6940817350140041e+00 -4.4518925323023497e+00 0 0 -1
9372 9 1 -5.9401942791696438e+00 -9.6663334004836088e+00 -4.0442715271358534e+00 0 0 -1
7375 6 1 -5.3186558899997776e+00 -9.7288341499413544e+00 -4.8362086142405287e+00 -5 1 0
9370 10 1 -6.4406524300590400e+00 -9.7814482371205465e+00 -4.8990031064800252e+00 0 0 -1
17693 8 1 -9.9359048911009662e+00 -8.9866727050251942e+00 -4.9748211083997775e+00 -2 1 -1
17694 7 1 -9.6541406898104434e+00 -8.6300135280107515e+00 -4.7428243359757287e+00 -2 1 -1